 Entering Gaussian System, Link 0=/opt/gaussian/g09/g09
 Initial command:
 /opt/gaussian/g09/l1.exe "/scratch/832990/Gau-2562.inp" -scrdir="/scratch/832990/"
 Entering Link 1 = /opt/gaussian/g09/l1.exe PID=      2569.
  
 Copyright (c) 1988,1990,1992,1993,1995,1998,2003,2009,2013,
            Gaussian, Inc.  All Rights Reserved.
  
 This is part of the Gaussian(R) 09 program.  It is based on
 the Gaussian(R) 03 system (copyright 2003, Gaussian, Inc.),
 the Gaussian(R) 98 system (copyright 1998, Gaussian, Inc.),
 the Gaussian(R) 94 system (copyright 1995, Gaussian, Inc.),
 the Gaussian 92(TM) system (copyright 1992, Gaussian, Inc.),
 the Gaussian 90(TM) system (copyright 1990, Gaussian, Inc.),
 the Gaussian 88(TM) system (copyright 1988, Gaussian, Inc.),
 the Gaussian 86(TM) system (copyright 1986, Carnegie Mellon
 University), and the Gaussian 82(TM) system (copyright 1983,
 Carnegie Mellon University). Gaussian is a federally registered
 trademark of Gaussian, Inc.
  
 This software contains proprietary and confidential information,
 including trade secrets, belonging to Gaussian, Inc.
  
 This software is provided under written license and may be
 used, copied, transmitted, or stored only in accord with that
 written license.
  
 The following legend is applicable only to US Government
 contracts under FAR:
  
                    RESTRICTED RIGHTS LEGEND
  
 Use, reproduction and disclosure by the US Government is
 subject to restrictions as set forth in subparagraphs (a)
 and (c) of the Commercial Computer Software - Restricted
 Rights clause in FAR 52.227-19.
  
 Gaussian, Inc.
 340 Quinnipiac St., Bldg. 40, Wallingford CT 06492
  
  
 ---------------------------------------------------------------
 Warning -- This program may not be used in any manner that
 competes with the business of Gaussian, Inc. or will provide
 assistance to any competitor of Gaussian, Inc.  The licensee
 of this program is prohibited from giving any competitor of
 Gaussian, Inc. access to this program.  By using this program,
 the user acknowledges that Gaussian, Inc. is engaged in the
 business of creating and licensing software in the field of
 computational chemistry and represents and warrants to the
 licensee that it is not a competitor of Gaussian, Inc. and that
 it will not use this program in any manner prohibited above.
 ---------------------------------------------------------------
  

 Cite this work as:
 Gaussian 09, Revision D.01,
 M. J. Frisch, G. W. Trucks, H. B. Schlegel, G. E. Scuseria, 
 M. A. Robb, J. R. Cheeseman, G. Scalmani, V. Barone, B. Mennucci, 
 G. A. Petersson, H. Nakatsuji, M. Caricato, X. Li, H. P. Hratchian, 
 A. F. Izmaylov, J. Bloino, G. Zheng, J. L. Sonnenberg, M. Hada, 
 M. Ehara, K. Toyota, R. Fukuda, J. Hasegawa, M. Ishida, T. Nakajima, 
 Y. Honda, O. Kitao, H. Nakai, T. Vreven, J. A. Montgomery, Jr., 
 J. E. Peralta, F. Ogliaro, M. Bearpark, J. J. Heyd, E. Brothers, 
 K. N. Kudin, V. N. Staroverov, T. Keith, R. Kobayashi, J. Normand, 
 K. Raghavachari, A. Rendell, J. C. Burant, S. S. Iyengar, J. Tomasi, 
 M. Cossi, N. Rega, J. M. Millam, M. Klene, J. E. Knox, J. B. Cross, 
 V. Bakken, C. Adamo, J. Jaramillo, R. Gomperts, R. E. Stratmann, 
 O. Yazyev, A. J. Austin, R. Cammi, C. Pomelli, J. W. Ochterski, 
 R. L. Martin, K. Morokuma, V. G. Zakrzewski, G. A. Voth, 
 P. Salvador, J. J. Dannenberg, S. Dapprich, A. D. Daniels, 
 O. Farkas, J. B. Foresman, J. V. Ortiz, J. Cioslowski, 
 and D. J. Fox, Gaussian, Inc., Wallingford CT, 2013.
 
 ******************************************
 Gaussian 09:  EM64L-G09RevD.01 24-Apr-2013
                21-Sep-2018 
 ******************************************
 ----------------------------
 #B3LYP/6-31G(d) force nosymm
 ----------------------------
 1/10=7,30=1,38=1/1,3;
 2/12=2,15=1,17=6,18=5,40=1/2;
 3/5=1,6=6,7=1,11=2,16=1,25=1,30=1,71=1,74=-5/1,2,3;
 4//1;
 5/5=2,38=5/2;
 6/7=2,8=2,9=2,10=2,28=1/1;
 7/29=1,30=1/1,2,3,16;
 1/10=7,30=1/3;
 99//99;
 ------------
 butane-6.xyz
 ------------
 Symbolic Z-matrix:
 Charge =  0 Multiplicity = 1
 C                    -1.56133  -0.21897   0.30978 
 C                    -0.5965    0.77219  -0.26118 
 C                     0.70581   0.1493   -0.69507 
 C                     1.44432  -0.52683   0.41725 
 H                    -1.30295  -1.24313  -0.01985 
 H                    -2.60432   0.04568  -0.01212 
 H                    -1.52206  -0.14088   1.41874 
 H                    -0.35216   1.5678    0.48947 
 H                    -1.00407   1.29733  -1.16596 
 H                     0.49931  -0.59771  -1.47932 
 H                     1.34532   0.98584  -1.07254 
 H                     0.77671  -1.18078   1.02099 
 H                     1.90592   0.21199   1.09466 
 H                     2.26601  -1.12183  -0.04484 
 

 GradGradGradGradGradGradGradGradGradGradGradGradGradGradGradGradGradGrad
 Berny optimization.
 Initialization pass.
 Trust Radius=3.00D-01 FncErr=1.00D-07 GrdErr=1.00D-07
 Number of steps in this run=      2 maximum allowed number of steps=      2.
 GradGradGradGradGradGradGradGradGradGradGradGradGradGradGradGradGradGrad

                          Input orientation:                          
 ---------------------------------------------------------------------
 Center     Atomic      Atomic             Coordinates (Angstroms)
 Number     Number       Type             X           Y           Z
 ---------------------------------------------------------------------
      1          6           0       -1.561330   -0.218970    0.309780
      2          6           0       -0.596500    0.772190   -0.261180
      3          6           0        0.705810    0.149300   -0.695070
      4          6           0        1.444320   -0.526830    0.417250
      5          1           0       -1.302950   -1.243130   -0.019850
      6          1           0       -2.604320    0.045680   -0.012120
      7          1           0       -1.522060   -0.140880    1.418740
      8          1           0       -0.352160    1.567800    0.489470
      9          1           0       -1.004070    1.297330   -1.165960
     10          1           0        0.499310   -0.597710   -1.479320
     11          1           0        1.345320    0.985840   -1.072540
     12          1           0        0.776710   -1.180780    1.020990
     13          1           0        1.905920    0.211990    1.094660
     14          1           0        2.266010   -1.121830   -0.044840
 ---------------------------------------------------------------------
                    Distance matrix (angstroms):
                    1          2          3          4          5
     1  C    0.000000
     2  C    1.496426   0.000000
     3  C    2.507044   1.507403   0.000000
     4  C    3.023286   2.512502   1.496598   0.000000
     5  H    1.106490   2.149146   2.535725   2.872566   0.000000
     6  H    1.123160   2.149695   3.381437   4.111400   1.831572
     7  H    1.112399   2.124262   3.084769   3.154576   1.825515
     8  H    2.164931   1.120791   2.129455   2.760440   3.010770
     9  H    2.188039   1.122725   2.112676   3.439292   2.803005
    10  H    2.755097   2.135718   1.102594   2.120152   2.407231
    11  H    3.436712   2.115329   1.118595   2.125428   3.617983
    12  H    2.626277   2.709937   2.172326   1.112590   2.326418
    13  H    3.581003   2.900730   2.155766   1.103546   3.695450
    14  H    3.948347   3.439197   2.114898   1.114776   3.571108
                    6          7          8          9         10
     6  H    0.000000
     7  H    1.803733   0.000000
     8  H    2.764176   2.269757   0.000000
     9  H    2.336402   3.002905   1.799608   0.000000
    10  H    3.492728   3.562777   3.048043   2.439164   0.000000
    11  H    4.196194   3.962050   2.379074   2.371790   1.840878
    12  H    3.742043   2.554201   3.018535   3.754325   2.582338
    13  H    4.647030   3.461299   2.702481   3.841407   3.042949
    14  H    5.008419   4.177775   3.791360   4.219321   2.335308
                   11         12         13         14
    11  H    0.000000
    12  H    3.066012   0.000000
    13  H    2.368517   1.794534   0.000000
    14  H    2.519149   1.832344   1.790866   0.000000
 Symmetry turned off by external request.
 Stoichiometry    C4H10
 Framework group  C1[X(C4H10)]
 Deg. of freedom    36
 Full point group                 C1      NOp   1
 Rotational constants (GHZ):     13.2493167      5.0720115      4.2632253
 Standard basis: 6-31G(d) (6D, 7F)
    80 basis functions,   152 primitive gaussians,    80 cartesian basis functions
    17 alpha electrons       17 beta electrons
       nuclear repulsion energy       133.9864730766 Hartrees.
 NAtoms=   14 NActive=   14 NUniq=   14 SFac= 1.00D+00 NAtFMM=   60 NAOKFM=F Big=F
 Integral buffers will be    131072 words long.
 Raffenetti 2 integral format.
 Two-electron integral symmetry is turned off.
 One-electron integrals computed using PRISM.
 NBasis=    80 RedAO= T EigKep=  4.62D-03  NBF=    80
 NBsUse=    80 1.00D-06 EigRej= -1.00D+00 NBFU=    80
 ExpMin= 1.61D-01 ExpMax= 3.05D+03 ExpMxC= 4.57D+02 IAcc=1 IRadAn=         1 AccDes= 0.00D+00
 Harris functional with IExCor=  402 and IRadAn=       1 diagonalized for initial guess.
 HarFok:  IExCor=  402 AccDes= 0.00D+00 IRadAn=         1 IDoV= 1 UseB2=F ITyADJ=14
 ICtDFT=  3500011 ScaDFX=  1.000000  1.000000  1.000000  1.000000
 FoFCou: FMM=F IPFlag=           0 FMFlag=      100000 FMFlg1=           0
         NFxFlg=           0 DoJE=T BraDBF=F KetDBF=T FulRan=T
         wScrn=  0.000000 ICntrl=     500 IOpCl=  0 I1Cent=   200000004 NGrid=           0
         NMat0=    1 NMatS0=      1 NMatT0=    0 NMatD0=    1 NMtDS0=    0 NMtDT0=    0
 Symmetry not used in FoFCou.
 Keep R1 ints in memory in canonical form, NReq=6191768.
 Requested convergence on RMS density matrix=1.00D-08 within 128 cycles.
 Requested convergence on MAX density matrix=1.00D-06.
 Requested convergence on             energy=1.00D-06.
 No special actions if energy rises.
 Integral accuracy reduced to 1.0D-05 until final iterations.
 Initial convergence to 1.0D-05 achieved.  Increase integral accuracy.
 SCF Done:  E(RB3LYP) =  -158.444186530     A.U. after   12 cycles
            NFock= 12  Conv=0.34D-08     -V/T= 2.0104

 **********************************************************************

            Population analysis using the SCF density.

 **********************************************************************

 Alpha  occ. eigenvalues --  -10.17380 -10.17329 -10.17280 -10.16999  -0.79898
 Alpha  occ. eigenvalues --   -0.71625  -0.63208  -0.55047  -0.46047  -0.45188
 Alpha  occ. eigenvalues --   -0.41682  -0.38035  -0.37476  -0.35723  -0.31885
 Alpha  occ. eigenvalues --   -0.31193  -0.30936
 Alpha virt. eigenvalues --    0.08423   0.12381   0.12725   0.13722   0.14763
 Alpha virt. eigenvalues --    0.15269   0.19288   0.19442   0.20856   0.22427
 Alpha virt. eigenvalues --    0.25105   0.25658   0.30824   0.50511   0.52814
 Alpha virt. eigenvalues --    0.54143   0.55586   0.57587   0.63995   0.68525
 Alpha virt. eigenvalues --    0.69183   0.71013   0.74136   0.82407   0.82420
 Alpha virt. eigenvalues --    0.84401   0.86213   0.87143   0.89543   0.90150
 Alpha virt. eigenvalues --    0.93176   0.94749   0.96215   0.96260   1.00313
 Alpha virt. eigenvalues --    1.04220   1.27885   1.41134   1.42903   1.55531
 Alpha virt. eigenvalues --    1.63835   1.69439   1.77181   1.89306   1.97162
 Alpha virt. eigenvalues --    2.00012   2.01463   2.02942   2.12646   2.18383
 Alpha virt. eigenvalues --    2.19726   2.27545   2.30266   2.34799   2.41908
 Alpha virt. eigenvalues --    2.43955   2.62580   2.64624   2.74935   4.14152
 Alpha virt. eigenvalues --    4.23456   4.38473   4.51886
          Condensed to atoms (all electrons):
               1          2          3          4          5          6
     1  C    5.081098   0.360157  -0.047371  -0.007104   0.380234   0.371769
     2  C    0.360157   4.980389   0.397206  -0.057948  -0.047104  -0.032187
     3  C   -0.047371   0.397206   4.959276   0.379301  -0.008497   0.004217
     4  C   -0.007104  -0.057948   0.379301   5.085078  -0.001891   0.000303
     5  H    0.380234  -0.047104  -0.008497  -0.001891   0.570612  -0.026175
     6  H    0.371769  -0.032187   0.004217   0.000303  -0.026175   0.580295
     7  H    0.377566  -0.034486  -0.000137   0.001189  -0.028561  -0.029372
     8  H   -0.042912   0.378044  -0.043841  -0.005955   0.005322   0.002485
     9  H   -0.040536   0.378222  -0.039429   0.006357   0.001766  -0.010181
    10  H   -0.007416  -0.043036   0.379202  -0.047573   0.006536   0.000142
    11  H    0.006494  -0.041422   0.375332  -0.043067   0.000272  -0.000196
    12  H    0.008157  -0.010948  -0.039491   0.376875   0.002863  -0.000094
    13  H   -0.000782  -0.001973  -0.036902   0.376084   0.000191  -0.000014
    14  H   -0.000069   0.006020  -0.035172   0.372671  -0.000189  -0.000002
               7          8          9         10         11         12
     1  C    0.377566  -0.042912  -0.040536  -0.007416   0.006494   0.008157
     2  C   -0.034486   0.378044   0.378222  -0.043036  -0.041422  -0.010948
     3  C   -0.000137  -0.043841  -0.039429   0.379202   0.375332  -0.039491
     4  C    0.001189  -0.005955   0.006357  -0.047573  -0.043067   0.376875
     5  H   -0.028561   0.005322   0.001766   0.006536   0.000272   0.002863
     6  H   -0.029372   0.002485  -0.010181   0.000142  -0.000196  -0.000094
     7  H    0.576465  -0.011620   0.004930  -0.000081  -0.000260  -0.000430
     8  H   -0.011620   0.623400  -0.035148   0.006681  -0.004548  -0.000240
     9  H    0.004930  -0.035148   0.617999  -0.004540  -0.004083   0.000132
    10  H   -0.000081   0.006681  -0.004540   0.613571  -0.028749  -0.001888
    11  H   -0.000260  -0.004548  -0.004083  -0.028749   0.619292   0.005760
    12  H   -0.000430  -0.000240   0.000132  -0.001888   0.005760   0.573321
    13  H    0.000163   0.004854  -0.000078   0.006010  -0.007838  -0.031307
    14  H   -0.000014  -0.000061  -0.000238  -0.007199  -0.001304  -0.026353
              13         14
     1  C   -0.000782  -0.000069
     2  C   -0.001973   0.006020
     3  C   -0.036902  -0.035172
     4  C    0.376084   0.372671
     5  H    0.000191  -0.000189
     6  H   -0.000014  -0.000002
     7  H    0.000163  -0.000014
     8  H    0.004854  -0.000061
     9  H   -0.000078  -0.000238
    10  H    0.006010  -0.007199
    11  H   -0.007838  -0.001304
    12  H   -0.031307  -0.026353
    13  H    0.583812  -0.030571
    14  H   -0.030571   0.585538
 Mulliken charges:
               1
     1  C   -0.439286
     2  C   -0.230933
     3  C   -0.243694
     4  C   -0.434320
     5  H    0.144620
     6  H    0.139008
     7  H    0.144647
     8  H    0.123539
     9  H    0.124828
    10  H    0.128340
    11  H    0.124316
    12  H    0.143643
    13  H    0.138349
    14  H    0.136943
 Sum of Mulliken charges =   0.00000
 Mulliken charges with hydrogens summed into heavy atoms:
               1
     1  C   -0.011010
     2  C    0.017434
     3  C    0.008962
     4  C   -0.015385
 Electronic spatial extent (au):  <R**2>=            367.5908
 Charge=              0.0000 electrons
 Dipole moment (field-independent basis, Debye):
    X=             -0.0175    Y=              0.0657    Z=             -0.0208  Tot=              0.0711
 Quadrupole moment (field-independent basis, Debye-Ang):
   XX=            -28.7729   YY=            -28.3411   ZZ=            -28.3279
   XY=              0.1546   XZ=              0.0426   YZ=              0.4535
 Traceless Quadrupole moment (field-independent basis, Debye-Ang):
   XX=             -0.2922   YY=              0.1395   ZZ=              0.1527
   XY=              0.1546   XZ=              0.0426   YZ=              0.4535
 Octapole moment (field-independent basis, Debye-Ang**2):
  XXX=              0.0975  YYY=             -2.4221  ZZZ=              3.5693  XYY=              0.7289
  XXY=              0.6894  XXZ=             -0.3619  XZZ=             -0.6655  YZZ=             -0.3209
  YYZ=              0.4336  XYZ=              0.5470
 Hexadecapole moment (field-independent basis, Debye-Ang**3):
 XXXX=           -305.7996 YYYY=           -105.3107 ZZZZ=            -97.6233 XXXY=             14.8865
 XXXZ=              5.3012 YYYX=             18.8568 YYYZ=             14.9116 ZZZX=              4.5846
 ZZZY=             14.7805 XXYY=            -69.2333 XXZZ=            -68.4991 YYZZ=            -32.8589
 XXYZ=              6.2730 YYXZ=              1.1233 ZZXY=              5.7046
 N-N= 1.339864730766D+02 E-N=-6.333359699150D+02  KE= 1.568163045152D+02
 Calling FoFJK, ICntrl=      2127 FMM=F ISym2X=0 I1Cent= 0 IOpClX= 0 NMat=1 NMatS=1 NMatT=0.
 -------------------------------------------------------------------
 Center     Atomic                   Forces (Hartrees/Bohr)
 Number     Number              X              Y              Z
 -------------------------------------------------------------------
      1        6          -0.026454053    0.000208304    0.011339346
      2        6           0.007251656    0.034706989   -0.014398824
      3        6           0.006984011    0.014390721   -0.010124353
      4        6           0.017482708   -0.013921857    0.010490648
      5        1          -0.007994366    0.004752245    0.004440070
      6        1           0.013164410   -0.010007412    0.007302987
      7        1          -0.004117620   -0.010285496   -0.010024668
      8        1          -0.006466848   -0.006426857   -0.009564308
      9        1           0.000665361   -0.005181911    0.013997536
     10        1           0.002963304    0.006522778   -0.003529541
     11        1          -0.004795794   -0.014994275   -0.005891738
     12        1           0.010480260    0.002638216   -0.006209125
     13        1          -0.002382255   -0.004010214   -0.000420123
     14        1          -0.006780775    0.001608769    0.012592093
 -------------------------------------------------------------------
 Cartesian Forces:  Max     0.034706989 RMS     0.010960549

 GradGradGradGradGradGradGradGradGradGradGradGradGradGradGradGradGradGrad
 Berny optimization.
 Search for a local minimum.
 Step number   1 out of a maximum of    2
 All quantities printed in internal units (Hartrees-Bohrs-Radians)
 Second derivative matrix not updated -- first step.
 ITU=  0
     Eigenvalues ---    0.00246   0.00548   0.00585   0.01301   0.02092
     Eigenvalues ---    0.03802   0.04228   0.04935   0.04982   0.05132
     Eigenvalues ---    0.05533   0.06248   0.07504   0.07859   0.09459
     Eigenvalues ---    0.10924   0.12884   0.13381   0.13713   0.13996
     Eigenvalues ---    0.16694   0.18041   0.19248   0.24995   0.34393
     Eigenvalues ---    0.45778   0.57770   0.69237   0.74303   0.81239
     Eigenvalues ---    0.84132   0.86289   0.94280   1.04827   1.08115
     Eigenvalues ---    1.09346
 Quadratic step=9.848D-01 exceeds max=3.000D-01 adjusted using Lamda=-4.061D-02.
 Angle between NR and scaled steps=  45.34 degrees.
 Angle between quadratic step and forces=  52.12 degrees.
 Linear search not attempted -- first point.
 TrRot=  0.003256  0.007003 -0.001431 -0.000470 -0.000040 -0.000470
 Variable       Old X    -DE/DX   Delta X   Delta X   Delta X     New X
                                 (Linear)    (Quad)   (Total)
    X1       -2.95049  -0.02645   0.00000  -0.05375  -0.05089  -3.00137
    Y1       -0.41379   0.00021   0.00000   0.01623   0.02605  -0.38774
    Z1        0.58540   0.01134   0.00000   0.01649   0.01494   0.60034
    X2       -1.12722   0.00725   0.00000  -0.00403   0.00067  -1.12656
    Y2        1.45923   0.03471   0.00000   0.04871   0.05678   1.51600
    Z2       -0.49356  -0.01440   0.00000  -0.02338  -0.02485  -0.51841
    X3        1.33379   0.00698   0.00000   0.03087   0.03446   1.36825
    Y3        0.28214   0.01439   0.00000   0.02159   0.02732   0.30945
    Z3       -1.31349  -0.01012   0.00000  -0.01961  -0.02098  -1.33447
    X4        2.72937   0.01748   0.00000   0.05830   0.06057   2.78993
    Y4       -0.99556  -0.01392   0.00000  -0.01887  -0.01448  -1.01004
    Z4        0.78849   0.01049   0.00000   0.01267   0.01135   0.79984
    X5       -2.46222  -0.00799   0.00000  -0.09780  -0.09672  -2.55894
    Y5       -2.34918   0.00475   0.00000   0.02299   0.03240  -2.31678
    Z5       -0.03751   0.00444   0.00000   0.01559   0.01405  -0.02346
    X6       -4.92145   0.01316   0.00000  -0.02709  -0.02380  -4.94525
    Y6        0.08632  -0.01001   0.00000  -0.04973  -0.03808   0.04824
    Z6       -0.02290   0.00730   0.00000   0.06047   0.05884   0.03594
    X7       -2.87628  -0.00412   0.00000  -0.06262  -0.05981  -2.93609
    Y7       -0.26622  -0.01029   0.00000  -0.09341  -0.08364  -0.34987
    Z7        2.68103  -0.01002   0.00000  -0.00709  -0.00864   2.67239
    X8       -0.66549  -0.00647   0.00000  -0.04532  -0.03929  -0.70477
    Y8        2.96271  -0.00643   0.00000   0.03304   0.04071   3.00342
    Z8        0.92496  -0.00956   0.00000  -0.04911  -0.05057   0.87439
    X9       -1.89742   0.00067   0.00000  -0.03752  -0.03186  -1.92927
    Y9        2.45160  -0.00518   0.00000   0.02101   0.02983   2.48143
    Z9       -2.20335   0.01400   0.00000   0.03106   0.02956  -2.17379
   X10        0.94356   0.00296   0.00000   0.02392   0.02628   0.96984
   Y10       -1.12951   0.00652   0.00000   0.04838   0.05448  -1.07503
   Z10       -2.79551  -0.00353   0.00000  -0.03540  -0.03679  -2.83230
   X11        2.54229  -0.00480   0.00000   0.02878   0.03381   2.57610
   Y11        1.86297  -0.01499   0.00000  -0.06175  -0.05716   1.80581
   Z11       -2.02681  -0.00589   0.00000  -0.09352  -0.09485  -2.12166
   X12        1.46777   0.01048   0.00000   0.07849   0.07956   1.54733
   Y12       -2.23135   0.00264   0.00000  -0.02281  -0.01726  -2.24861
   Z12        1.92939  -0.00621   0.00000  -0.02192  -0.02329   1.90610
   X13        3.60167  -0.00238   0.00000   0.01419   0.01770   3.61937
   Y13        0.40060  -0.00401   0.00000  -0.03130  -0.02769   0.37291
   Z13        2.06861  -0.00042   0.00000   0.03530   0.03402   2.10262
   X14        4.28214  -0.00678   0.00000   0.04808   0.04932   4.33146
   Y14       -2.11995   0.00161   0.00000  -0.03218  -0.02925  -2.14920
   Z14       -0.08474   0.01259   0.00000   0.09848   0.09723   0.01249
         Item               Value     Threshold  Converged?
 Maximum Force            0.034707     0.000450     NO 
 RMS     Force            0.010961     0.000300     NO 
 Maximum Displacement     0.097225     0.001800     NO 
 RMS     Displacement     0.046174     0.001200     NO 
 Predicted change in Energy=-8.399394D-03
 GradGradGradGradGradGradGradGradGradGradGradGradGradGradGradGradGradGrad

 1\1\GINC-NODE657\Force\RB3LYP\6-31G(d)\C4H10\CHARNLEY\21-Sep-2018\0\\#
 B3LYP/6-31G(d) force nosymm\\butane-6.xyz\\0,1\C,-1.56133,-0.21897,0.3
 0978\C,-0.5965,0.77219,-0.26118\C,0.70581,0.1493,-0.69507\C,1.44432,-0
 .52683,0.41725\H,-1.30295,-1.24313,-0.01985\H,-2.60432,0.04568,-0.0121
 2\H,-1.52206,-0.14088,1.41874\H,-0.35216,1.5678,0.48947\H,-1.00407,1.2
 9733,-1.16596\H,0.49931,-0.59771,-1.47932\H,1.34532,0.98584,-1.07254\H
 ,0.77671,-1.18078,1.02099\H,1.90592,0.21199,1.09466\H,2.26601,-1.12183
 ,-0.04484\\Version=EM64L-G09RevD.01\HF=-158.4441865\RMSD=3.394e-09\RMS
 F=1.096e-02\Dipole=-0.0068844,0.025868,-0.0081847\Quadrupole=-0.217276
 ,0.1037386,0.1135374,0.1149532,0.0316476,0.3371824\PG=C01 [X(C4H10)]\\
 @


 A warm smile is the universal language of kindness.
                             -- William Arthur Ward
 Job cpu time:       0 days  0 hours  0 minutes 18.2 seconds.
 File lengths (MBytes):  RWF=      5 Int=      0 D2E=      0 Chk=      1 Scr=      1
 Normal termination of Gaussian 09 at Fri Sep 21 20:31:38 2018.
